/*----------------------------*- AmpersandCFD -*------------------------------*\ 
/*--------------------------------*- C++ -*----------------------------------*\         
| ========                 |                                                 |
| \      /  F ield         | OpenFOAM: The Open Source CFD Toolbox           |
|  \    /   O peration     | Version:  v2312                                 |
|   \  /    A nd           | Website:  www.openfoam.com                      |
|    \/     M anipulation  |                                                 |
\*---------------------------------------------------------------------------*/

/*This file is part of OpenFOAM casefiles automatically generated by AmpersandCFD*/
FoamFile
{
    version     2.0;
    format      ascii;
    class       volScalarField;
    object      omega;
}
dimensions      [0 0 -1 0 0 0 0];
internalField   uniform 1e-06;

boundaryField 
{
    inlet
    {
        type fixedValue;
        value uniform 1;
    }
    
    outlet
    {
        type zeroGradient;
        value uniform 1e-06;
    }
    
    front
    {
        type omegaWallFunction;
        value  $internalField;
    }
    
    back
    {
        type omegaWallFunction;
        value  $internalField;
    }
    
    bottom
    {
        type omegaWallFunction;
        value  $internalField;
    }
    
    top
    {
        type omegaWallFunction;
        value  $internalField;
    }
    
    ahmed
    {
        type omegaWallFunction;
        value  $internalField;
    }
    
}