/*----------------------------*- AmpersandCFD -*------------------------------*\ 
/*--------------------------------*- C++ -*----------------------------------*\         
| ========                 |                                                 |
| \      /  F ield         | OpenFOAM: The Open Source CFD Toolbox           |
|  \    /   O peration     | Version:  v2312                                 |
|   \  /    A nd           | Website:  www.openfoam.com                      |
|    \/     M anipulation  |                                                 |
\*---------------------------------------------------------------------------*/

/*This file is part of OpenFOAM casefiles automatically generated by AmpersandCFD*/
FoamFile
{
    version     2.0;
    format      ascii;
    class       volScalarField;
    object      p;
}
dimensions      [0 2 -2 0 0 0 0];
internalField   uniform 0;

boundaryField 
{
    inlet
    {
        type zeroGradient;
        value uniform 0;
    }
    
    outlet
    {
        type fixedValue;
        value uniform 0;
    }
    
    front
    {
        type zeroGradient;
        value uniform 0;
    }
    
    back
    {
        type zeroGradient;
        value uniform 0;
    }
    
    bottom
    {
        type zeroGradient;
        value uniform 0;
    }
    
    top
    {
        type zeroGradient;
        value uniform 0;
    }
    
    ahmed
    {
        type zeroGradient;
        value uniform 0;
    }
    
}