# Probe 0 (4.94221 -0.0569206 -0.0553882)
# Time        0            
1             0.0281341    
2             0.0393241    
3             0.0409984    
4             0.0412176    
5             0.0410485    
6             0.040539     
7             0.0404498    
8             0.0402957    
9             0.0401816    
10            0.0400717    
11            0.0399611    
12            0.0398653    
13            0.0397613    
14            0.0408187    
15            0.0450367    
16            0.0512793    
17            0.0597908    
18            0.0696503    
19            0.0800496    
20            0.0906611    
21            0.100961     
22            0.110654     
23            0.119097     
24            0.126022     
25            0.131308     
26            0.134647     
27            0.136002     
28            0.135555     
29            0.133632     
30            0.130561     
31            0.126613     
32            0.121923     
33            0.11719      
34            0.112521     
35            0.108242     
36            0.104178     
37            0.10052      
38            0.0973725    
39            0.0948311    
40            0.0925121    
41            0.0908176    
42            0.0897879    
43            0.0892981    
44            0.0893723    
45            0.0898906    
46            0.0907261    
47            0.0919069    
48            0.0933866    
49            0.0950858    
50            0.0969281    
51            0.0988258    
52            0.10072      
53            0.102601     
54            0.104445     
55            0.106219     
56            0.107902     
57            0.109486     
58            0.110994     
59            0.112432     
60            0.113793     
61            0.115076     
62            0.116318     
63            0.117493     
64            0.118638     
65            0.119756     
66            0.120849     
67            0.121927     
68            0.122987     
69            0.124014     
70            0.125034     
71            0.126045     
72            0.127056     
73            0.128057     
74            0.129055     
75            0.13005      
76            0.131047     
77            0.132037     
78            0.133014     
79            0.133986     
80            0.134943     
81            0.135896     
82            0.136838     
83            0.137769     
84            0.138689     
85            0.139597     
86            0.140495     
87            0.141394     
88            0.142285     
89            0.143172     
90            0.14405      
91            0.144925     
92            0.145799     
93            0.146671     
94            0.147547     
95            0.148413     
96            0.149283     
97            0.150141     
98            0.150994     
99            0.15184      
100           0.152681     
101           0.153486     
102           0.154289     
103           0.155081     
104           0.155887     
105           0.156671     
106           0.157445     
107           0.158211     
108           0.158972     
109           0.159727     
110           0.160475     
111           0.161221     
112           0.161922     
113           0.162634     
114           0.163345     
115           0.164043     
116           0.164735     
117           0.165417     
118           0.16609      
119           0.166754     
120           0.167406     
121           0.168044     
122           0.168669     
123           0.169279     
124           0.169871     
125           0.170446     
126           0.171        
127           0.171529     
128           0.172042     
129           0.172524     
130           0.172984     
131           0.173417     
132           0.173826     
133           0.17421      
134           0.174574     
135           0.174917     
136           0.175239     
137           0.175546     
138           0.175831     
139           0.176106     
140           0.176362     
141           0.176607     
142           0.176841     
143           0.17706      
144           0.177271     
145           0.177471     
146           0.177664     
147           0.177846     
148           0.178019     
149           0.178184     
150           0.178336     
151           0.178485     
152           0.178626     
153           0.178753     
154           0.178879     
155           0.178997     
156           0.179105     
157           0.179212     
158           0.179309     
159           0.179404     
160           0.179489     
161           0.179572     
162           0.179647     
163           0.179717     
164           0.179782     
165           0.179844     
166           0.179901     
167           0.179954     
168           0.180002     
169           0.180049     
170           0.18009      
171           0.180128     
172           0.180163     
173           0.180195     
174           0.180227     
175           0.180256     
176           0.180284     
177           0.18031      
178           0.180335     
179           0.180359     
180           0.180382     
181           0.180403     
182           0.180421     
183           0.180439     
184           0.180455     
185           0.18047      
186           0.180484     
187           0.180498     
188           0.18051      
189           0.180522     
190           0.180532     
191           0.180542     
192           0.180551     
193           0.180558     
194           0.180565     
195           0.18057      
196           0.180575     
197           0.180578     
198           0.18058      
199           0.180581     
200           0.180582     
201           0.180581     
202           0.180579     
203           0.180577     
204           0.180574     
205           0.18057      
206           0.180565     
207           0.18056      
208           0.180554     
209           0.180547     
210           0.18054      
211           0.180538     
212           0.180528     
213           0.180518     
214           0.180507     
215           0.180495     
216           0.180484     
217           0.180472     
218           0.18046      
219           0.180447     
220           0.180434     
221           0.180422     
222           0.180409     
223           0.180395     
224           0.180382     
225           0.180369     
226           0.180356     
227           0.180342     
228           0.180328     
229           0.180315     
230           0.180301     
231           0.180287     
232           0.180272     
233           0.180258     
234           0.180243     
235           0.180228     
236           0.180212     
237           0.180197     
238           0.180181     
239           0.180166     
240           0.18015      
241           0.180133     
242           0.180118     
243           0.180102     
244           0.180085     
245           0.180069     
246           0.180053     
247           0.180037     
248           0.180021     
249           0.180005     
250           0.179997     
251           0.179982     
252           0.179967     
253           0.179951     
254           0.179935     
255           0.179918     
256           0.179904     
257           0.179889     
258           0.179875     
259           0.179861     
260           0.179847     
261           0.179833     
262           0.17982      
263           0.179807     
264           0.179794     
265           0.179782     
266           0.179769     
267           0.179757     
268           0.179745     
269           0.179734     
270           0.179722     
271           0.17971      
272           0.179699     
273           0.179688     
274           0.179677     
275           0.179666     
276           0.179655     
277           0.179646     
278           0.179641     
279           0.179632     
280           0.179622     
281           0.179612     
282           0.179602     
283           0.179593     
284           0.179583     
285           0.179574     
286           0.179565     
287           0.179557     
288           0.179549     
289           0.179541     
290           0.179533     
291           0.179525     
292           0.179517     
293           0.17951      
294           0.179503     
295           0.179496     
296           0.179489     
297           0.179482     
298           0.179475     
299           0.179469     
300           0.179462     
301           0.179457     
302           0.179456     
303           0.179452     
304           0.179446     
305           0.17944      
306           0.179434     
307           0.179428     
308           0.179422     
309           0.179417     
310           0.179412     
311           0.179406     
312           0.179401     
313           0.179396     
314           0.179391     
315           0.179386     
316           0.179381     
317           0.179377     
318           0.179372     
319           0.179368     
320           0.179363     
321           0.179359     
322           0.179355     
323           0.179356     
324           0.179354     
325           0.17935      
326           0.179346     
327           0.179342     
328           0.179338     
329           0.179333     
330           0.179329     
331           0.179324     
332           0.17932      
333           0.179316     
334           0.179312     
335           0.179309     
336           0.179304     
337           0.179301     
338           0.179297     
339           0.179294     
340           0.179291     
341           0.179288     
342           0.179284     
343           0.179281     
344           0.179278     
345           0.179276     
346           0.179277     
347           0.179276     
348           0.179274     
349           0.179272     
350           0.179269     
351           0.179266     
352           0.179263     
353           0.179261     
354           0.179259     
355           0.179257     
356           0.179255     
357           0.179253     
358           0.179251     
359           0.179249     
360           0.179246     
361           0.179245     
362           0.179243     
363           0.179241     
364           0.179239     
365           0.179237     
366           0.179235     
367           0.179234     
368           0.179232     
369           0.17923      
370           0.179229     
371           0.179227     
372           0.179225     
373           0.179224     
374           0.179222     
375           0.179221     
376           0.17922      
377           0.179218     
378           0.179217     
379           0.179215     
380           0.179214     
381           0.179212     
382           0.179211     
383           0.179209     
384           0.179208     
385           0.179207     
386           0.179205     
387           0.179204     
388           0.179203     
389           0.179202     
390           0.179201     
391           0.1792       
392           0.179199     
393           0.179199     
