# Probe 0 (4.94221 -0.0569206 -0.0553882)
# Time        0            
1             (1.0003 1.96652e-05 -6.81189e-05)
2             (1.00115 2.67227e-05 -1.73506e-05)
3             (1.00206 -2.84788e-05 -2.1489e-05)
4             (1.00299 -1.17972e-05 -3.912e-06)
5             (1.00387 -1.15915e-05 3.43566e-06)
6             (1.00471 -1.47367e-05 -2.42031e-06)
7             (1.00558 -1.82471e-05 -4.46697e-06)
8             (1.00644 -1.80572e-05 -1.00441e-06)
9             (1.00729 -1.59008e-05 3.40087e-06)
10            (1.00811 -1.29323e-05 6.28028e-06)
11            (1.00895 -1.00059e-05 8.22544e-06)
12            (1.00982 -6.52437e-06 8.60024e-06)
13            (1.01072 -2.70008e-06 7.65427e-06)
14            (1.0117 1.73687e-07 5.8918e-06)
15            (1.01289 2.67981e-06 4.51746e-06)
16            (1.0143 5.44547e-06 3.74085e-06)
17            (1.01592 8.37684e-06 3.17976e-06)
18            (1.01777 1.14586e-05 2.68316e-06)
19            (1.01985 1.43111e-05 2.62808e-06)
20            (1.02213 1.72143e-05 3.90884e-06)
21            (1.02461 2.01777e-05 5.51902e-06)
22            (1.02725 2.34521e-05 7.42551e-06)
23            (1.03002 2.77069e-05 1.12148e-05)
24            (1.03287 3.30603e-05 1.58929e-05)
25            (1.03578 3.87156e-05 2.1085e-05)
26            (1.03869 4.46679e-05 2.73794e-05)
27            (1.04157 5.09092e-05 3.33371e-05)
28            (1.04439 5.74662e-05 3.86747e-05)
29            (1.04714 6.38279e-05 4.32359e-05)
30            (1.04979 6.96301e-05 4.7601e-05)
31            (1.05235 7.5268e-05 5.15221e-05)
32            (1.05479 7.98739e-05 5.51527e-05)
33            (1.05712 8.42365e-05 5.92109e-05)
34            (1.05933 8.77199e-05 6.3509e-05)
35            (1.06142 9.0816e-05 6.76991e-05)
36            (1.0634 9.37975e-05 7.17441e-05)
37            (1.06527 9.6806e-05 7.57465e-05)
38            (1.06704 0.00010019 8.00331e-05)
39            (1.06873 0.000105248 8.42602e-05)
40            (1.07034 0.000112185 8.9942e-05)
41            (1.07188 0.000121333 9.65803e-05)
42            (1.07338 0.000132622 0.000104973)
43            (1.07485 0.000147011 0.000114665)
44            (1.07629 0.000163969 0.000126944)
45            (1.0777 0.00018338 0.000141755)
46            (1.07907 0.000204371 0.000158691)
47            (1.08039 0.000226347 0.000177655)
48            (1.08163 0.00024863 0.000198333)
49            (1.08278 0.000270213 0.000219934)
50            (1.08379 0.000290526 0.000241859)
51            (1.08463 0.000309165 0.000263794)
52            (1.08521 0.000325934 0.000284969)
53            (1.08552 0.000342004 0.000304249)
54            (1.08553 0.000354856 0.000323096)
55            (1.0852 0.000365964 0.000339272)
56            (1.0845 0.000374362 0.000352593)
57            (1.08341 0.000379922 0.00036232)
58            (1.08191 0.000382187 0.000368298)
59            (1.07998 0.000381781 0.000370883)
60            (1.0776 0.000378216 0.000369758)
61            (1.07482 0.000372235 0.000365644)
62            (1.07167 0.000363564 0.000358423)
63            (1.06816 0.000353326 0.000349312)
64            (1.06442 0.000341221 0.000337872)
65            (1.06048 0.000325405 0.000322304)
66            (1.05637 0.000307595 0.000304242)
67            (1.05214 0.000288177 0.000284604)
68            (1.04781 0.000268324 0.000264531)
69            (1.04341 0.000247872 0.000244247)
70            (1.03898 0.000227868 0.000224856)
71            (1.03453 0.000209467 0.000207279)
72            (1.03011 0.000193216 0.000192143)
73            (1.02574 0.000179723 0.00018003)
74            (1.02144 0.00016836 0.000170147)
75            (1.01725 0.000158682 0.000162124)
76            (1.01319 0.00015088 0.000156115)
77            (1.0093 0.000144769 0.000152104)
78            (1.00559 0.000136757 0.00014639)
79            (1.00207 0.000132503 0.000144677)
80            (0.998751 0.000131094 0.000145863)
81            (0.99562 0.000132237 0.000149449)
82            (0.992678 0.000135408 0.000155061)
83            (0.989925 0.00014041 0.000162073)
84            (0.987361 0.000147323 0.000170425)
85            (0.98499 0.000155474 0.000179482)
86            (0.982815 0.00016486 0.000189068)
87            (0.98084 0.000175147 0.000199335)
88            (0.979067 0.000186223 0.000209612)
89            (0.977496 0.000197228 0.000219304)
90            (0.976125 0.000207754 0.000228322)
91            (0.974948 0.000216989 0.000235672)
92            (0.973956 0.00022403 0.000240838)
93            (0.973137 0.000230546 0.000244774)
94            (0.972478 0.000235266 0.000248242)
95            (0.971934 0.000240446 0.000251162)
96            (0.971471 0.000244069 0.000252943)
97            (0.971091 0.00024597 0.000253399)
98            (0.970794 0.000246076 0.000252443)
99            (0.970578 0.00024491 0.000250368)
100           (0.970435 0.000242609 0.000247418)
101           (0.970354 0.000239439 0.000243721)
102           (0.970327 0.00023559 0.000239455)
103           (0.970346 0.000231252 0.000234781)
104           (0.970405 0.000226542 0.000229818)
105           (0.970497 0.000221721 0.000224752)
106           (0.970619 0.000216841 0.000219675)
107           (0.970766 0.000211907 0.000214542)
108           (0.970935 0.000206946 0.000209351)
109           (0.971123 0.000201999 0.000204116)
110           (0.971326 0.000196961 0.000198883)
111           (0.971544 0.00019203 0.000193842)
112           (0.971773 0.000187186 0.00018907)
113           (0.972012 0.000182539 0.00018431)
114           (0.972258 0.000177815 0.000179809)
115           (0.972508 0.000173273 0.000175182)
116           (0.972763 0.000168814 0.000170765)
117           (0.973019 0.000164191 0.000166222)
118           (0.973277 0.000159725 0.000161802)
119           (0.973534 0.00015535 0.000157371)
120           (0.97379 0.000151058 0.000152973)
121           (0.974043 0.000146916 0.000148673)
122           (0.974295 0.000142914 0.000144464)
123           (0.974545 0.000139067 0.000140414)
124           (0.974793 0.000135348 0.000136387)
125           (0.97504 0.000131833 0.000132615)
126           (0.975284 0.000128476 0.000129042)
127           (0.975526 0.000125159 0.00012559)
128           (0.975767 0.000121749 0.000122101)
129           (0.976007 0.000118391 0.000118808)
130           (0.976245 0.000115364 0.000115783)
131           (0.976482 0.00011255 0.000112983)
132           (0.976718 0.000109919 0.000110363)
133           (0.976952 0.000107394 0.000107851)
134           (0.977184 0.000104966 0.000105367)
135           (0.977414 0.000102628 0.000103051)
136           (0.977643 0.000100353 0.00010072)
137           (0.97787 9.81266e-05 9.84919e-05)
138           (0.978094 9.59519e-05 9.63016e-05)
139           (0.978317 9.38545e-05 9.41543e-05)
140           (0.978537 9.14675e-05 9.17545e-05)
141           (0.978755 8.91671e-05 8.93541e-05)
142           (0.978971 8.67811e-05 8.69454e-05)
143           (0.979185 8.43959e-05 8.45195e-05)
144           (0.979397 8.20349e-05 8.21138e-05)
145           (0.979607 7.97187e-05 7.98013e-05)
146           (0.979815 7.74908e-05 7.75728e-05)
147           (0.98002 7.5387e-05 7.54636e-05)
148           (0.980223 7.33949e-05 7.34466e-05)
149           (0.980423 7.14614e-05 7.15557e-05)
150           (0.980621 6.96425e-05 6.97578e-05)
151           (0.980817 6.78785e-05 6.80218e-05)
152           (0.98101 6.6163e-05 6.63252e-05)
153           (0.981201 6.45306e-05 6.47054e-05)
154           (0.98139 6.28908e-05 6.28303e-05)
155           (0.981576 6.13043e-05 6.14634e-05)
156           (0.98176 6.00097e-05 6.024e-05)
157           (0.981942 5.86198e-05 5.88255e-05)
158           (0.982121 5.72648e-05 5.74989e-05)
159           (0.982298 5.59377e-05 5.61808e-05)
160           (0.982473 5.46678e-05 5.49332e-05)
161           (0.982646 5.33247e-05 5.35927e-05)
162           (0.982816 5.21053e-05 5.24278e-05)
163           (0.982984 5.08871e-05 5.12258e-05)
164           (0.983149 4.96823e-05 5.00466e-05)
165           (0.983312 4.84943e-05 4.88797e-05)
166           (0.983473 4.73147e-05 4.77298e-05)
167           (0.983631 4.61301e-05 4.6592e-05)
168           (0.983787 4.49473e-05 4.54495e-05)
169           (0.98394 4.37754e-05 4.43103e-05)
170           (0.984091 4.26097e-05 4.31598e-05)
171           (0.98424 4.14219e-05 4.20119e-05)
172           (0.984386 4.02301e-05 4.08516e-05)
173           (0.984529 3.90298e-05 3.96691e-05)
174           (0.98467 3.78148e-05 3.84566e-05)
175           (0.984808 3.65806e-05 3.7214e-05)
176           (0.984943 3.53214e-05 3.59508e-05)
177           (0.985076 3.40307e-05 3.46642e-05)
178           (0.985207 3.27145e-05 3.3366e-05)
179           (0.985335 3.13818e-05 3.20552e-05)
180           (0.98546 3.00348e-05 3.07287e-05)
181           (0.985583 2.86745e-05 2.94004e-05)
182           (0.985703 2.72912e-05 2.80483e-05)
183           (0.985821 2.59214e-05 2.66925e-05)
184           (0.985936 2.45558e-05 2.53366e-05)
185           (0.986049 2.31358e-05 2.39738e-05)
186           (0.986159 2.17393e-05 2.26012e-05)
187           (0.986267 2.0341e-05 2.12258e-05)
188           (0.986372 1.89364e-05 1.98431e-05)
189           (0.986474 1.75494e-05 1.84595e-05)
190           (0.986575 1.61554e-05 1.70878e-05)
191           (0.986672 1.47711e-05 1.57259e-05)
192           (0.986767 1.34156e-05 1.43734e-05)
193           (0.98686 1.20628e-05 1.30334e-05)
194           (0.986951 1.07131e-05 1.16937e-05)
195           (0.987039 9.36776e-06 1.03454e-05)
196           (0.987124 8.01802e-06 8.99939e-06)
197           (0.987207 6.686e-06 7.65767e-06)
198           (0.987288 5.33587e-06 6.3079e-06)
199           (0.987367 3.98947e-06 4.98066e-06)
200           (0.987443 2.66169e-06 3.67019e-06)
201           (0.987517 1.362e-06 2.38055e-06)
202           (0.987589 4.33641e-08 1.09376e-06)
203           (0.987659 -1.26765e-06 -1.87267e-07)
204           (0.987726 -2.59149e-06 -1.45588e-06)
205           (0.987791 -3.89161e-06 -2.72332e-06)
206           (0.987855 -5.19462e-06 -3.97004e-06)
207           (0.987916 -6.47323e-06 -5.21353e-06)
208           (0.987975 -7.74824e-06 -6.42152e-06)
209           (0.988032 -9.01815e-06 -7.65767e-06)
210           (0.988087 -1.02677e-05 -8.88029e-06)
211           (0.98814 -1.14956e-05 -1.00749e-05)
212           (0.988191 -1.27343e-05 -1.12504e-05)
213           (0.98824 -1.39597e-05 -1.2455e-05)
214           (0.988288 -1.51789e-05 -1.36336e-05)
215           (0.988333 -1.64095e-05 -1.48385e-05)
216           (0.988376 -1.76173e-05 -1.6058e-05)
217           (0.988418 -1.88143e-05 -1.72505e-05)
218           (0.988458 -2.00168e-05 -1.84162e-05)
219           (0.988496 -2.12141e-05 -1.95766e-05)
220           (0.988532 -2.2412e-05 -2.07235e-05)
221           (0.988567 -2.36075e-05 -2.18608e-05)
222           (0.9886 -2.47958e-05 -2.30053e-05)
223           (0.988631 -2.59657e-05 -2.41179e-05)
224           (0.988661 -2.71319e-05 -2.52497e-05)
225           (0.988689 -2.82896e-05 -2.63658e-05)
226           (0.988716 -2.94292e-05 -2.74802e-05)
227           (0.988741 -3.05518e-05 -2.85777e-05)
228           (0.988764 -3.16561e-05 -2.96685e-05)
229           (0.988787 -3.27384e-05 -3.07461e-05)
230           (0.988808 -3.37991e-05 -3.17928e-05)
231           (0.988827 -3.48331e-05 -3.28176e-05)
232           (0.988846 -3.58413e-05 -3.38198e-05)
233           (0.988863 -3.68211e-05 -3.47978e-05)
234           (0.988879 -3.77657e-05 -3.57569e-05)
235           (0.988893 -3.86865e-05 -3.66799e-05)
236           (0.988907 -3.95756e-05 -3.75678e-05)
237           (0.98892 -4.04369e-05 -3.83743e-05)
238           (0.988932 -4.12644e-05 -3.92188e-05)
239           (0.988942 -4.20673e-05 -4.00299e-05)
240           (0.988952 -4.28434e-05 -4.08089e-05)
241           (0.988961 -4.35868e-05 -4.15535e-05)
242           (0.98897 -4.43054e-05 -4.22634e-05)
243           (0.988978 -4.49817e-05 -4.2941e-05)
244           (0.988985 -4.56072e-05 -4.35951e-05)
245           (0.988991 -4.62127e-05 -4.4211e-05)
246           (0.988997 -4.68447e-05 -4.47838e-05)
247           (0.989002 -4.73873e-05 -4.53297e-05)
248           (0.989007 -4.79084e-05 -4.58444e-05)
249           (0.989011 -4.84077e-05 -4.63347e-05)
250           (0.989015 -4.88773e-05 -4.67919e-05)
251           (0.989018 -4.93126e-05 -4.72139e-05)
252           (0.989021 -4.96953e-05 -4.75971e-05)
253           (0.989024 -5.0034e-05 -4.79528e-05)
254           (0.989026 -5.03726e-05 -4.8284e-05)
255           (0.989028 -5.06897e-05 -4.85933e-05)
256           (0.98903 -5.09815e-05 -4.8878e-05)
257           (0.989032 -5.12499e-05 -4.91403e-05)
258           (0.989034 -5.14947e-05 -4.93798e-05)
259           (0.989035 -5.1719e-05 -4.96024e-05)
260           (0.989036 -5.19291e-05 -4.98085e-05)
261           (0.989037 -5.21221e-05 -4.99981e-05)
262           (0.989038 -5.22971e-05 -5.01697e-05)
263           (0.989039 -5.24554e-05 -5.03263e-05)
264           (0.989039 -5.25981e-05 -5.04669e-05)
265           (0.98904 -5.27311e-05 -5.05954e-05)
266           (0.989041 -5.28516e-05 -5.07108e-05)
267           (0.989041 -5.29591e-05 -5.08153e-05)
268           (0.989041 -5.30562e-05 -5.09097e-05)
269           (0.989042 -5.31436e-05 -5.09944e-05)
270           (0.989042 -5.32218e-05 -5.10704e-05)
271           (0.989042 -5.32915e-05 -5.11386e-05)
272           (0.989043 -5.33539e-05 -5.11991e-05)
273           (0.989043 -5.34098e-05 -5.12533e-05)
274           (0.989043 -5.34603e-05 -5.13025e-05)
275           (0.989043 -5.35047e-05 -5.13455e-05)
276           (0.989043 -5.35437e-05 -5.13838e-05)
277           (0.989043 -5.35778e-05 -5.14173e-05)
278           (0.989043 -5.36077e-05 -5.14468e-05)
279           (0.989043 -5.3634e-05 -5.14727e-05)
280           (0.989043 -5.36572e-05 -5.14954e-05)
281           (0.989044 -5.36776e-05 -5.15154e-05)
282           (0.989044 -5.36958e-05 -5.15328e-05)
283           (0.989044 -5.37113e-05 -5.15483e-05)
284           (0.989044 -5.37252e-05 -5.15618e-05)
285           (0.989044 -5.37363e-05 -5.15722e-05)
286           (0.989044 -5.37464e-05 -5.1582e-05)
287           (0.989044 -5.37552e-05 -5.15906e-05)
288           (0.989044 -5.37628e-05 -5.15979e-05)
289           (0.989044 -5.37694e-05 -5.16042e-05)
290           (0.989044 -5.37751e-05 -5.16097e-05)
291           (0.989044 -5.378e-05 -5.16144e-05)
292           (0.989044 -5.37842e-05 -5.16185e-05)
293           (0.989044 -5.37877e-05 -5.16219e-05)
294           (0.989044 -5.37907e-05 -5.16249e-05)
295           (0.989044 -5.37933e-05 -5.16274e-05)
296           (0.989044 -5.37955e-05 -5.16295e-05)
297           (0.989044 -5.37974e-05 -5.16313e-05)
298           (0.989044 -5.37989e-05 -5.16328e-05)
299           (0.989044 -5.38003e-05 -5.16341e-05)
300           (0.989044 -5.38014e-05 -5.16352e-05)
301           (0.989044 -5.38022e-05 -5.16361e-05)
302           (0.989044 -5.3803e-05 -5.1637e-05)
303           (0.989044 -5.38035e-05 -5.16376e-05)
304           (0.989044 -5.38038e-05 -5.1638e-05)
305           (0.989044 -5.38042e-05 -5.16384e-05)
306           (0.989044 -5.38046e-05 -5.16388e-05)
307           (0.989044 -5.38049e-05 -5.1639e-05)
308           (0.989044 -5.38051e-05 -5.16392e-05)
309           (0.989044 -5.38054e-05 -5.16394e-05)
310           (0.989044 -5.38055e-05 -5.16396e-05)
311           (0.989044 -5.38057e-05 -5.16397e-05)
312           (0.989044 -5.38058e-05 -5.16398e-05)
313           (0.989044 -5.3806e-05 -5.16399e-05)
314           (0.989044 -5.38061e-05 -5.16399e-05)
315           (0.989044 -5.38062e-05 -5.16399e-05)
316           (0.989044 -5.38062e-05 -5.164e-05)
317           (0.989044 -5.38063e-05 -5.164e-05)
318           (0.989044 -5.38063e-05 -5.164e-05)
319           (0.989044 -5.38064e-05 -5.164e-05)
320           (0.989044 -5.38064e-05 -5.164e-05)
321           (0.989044 -5.38064e-05 -5.164e-05)
322           (0.989044 -5.38064e-05 -5.164e-05)
323           (0.989044 -5.38065e-05 -5.164e-05)
324           (0.989044 -5.38065e-05 -5.164e-05)
325           (0.989044 -5.38064e-05 -5.16399e-05)
326           (0.989044 -5.38064e-05 -5.164e-05)
327           (0.989044 -5.38064e-05 -5.16399e-05)
328           (0.989044 -5.38064e-05 -5.16399e-05)
329           (0.989044 -5.38064e-05 -5.16399e-05)
330           (0.989044 -5.38064e-05 -5.16399e-05)
331           (0.989044 -5.38064e-05 -5.16398e-05)
332           (0.989044 -5.38064e-05 -5.16398e-05)
333           (0.989044 -5.38064e-05 -5.16398e-05)
334           (0.989044 -5.38064e-05 -5.16398e-05)
335           (0.989044 -5.38064e-05 -5.16397e-05)
336           (0.989044 -5.38064e-05 -5.16397e-05)
337           (0.989044 -5.38064e-05 -5.16397e-05)
338           (0.989044 -5.38064e-05 -5.16397e-05)
339           (0.989044 -5.38064e-05 -5.16396e-05)
340           (0.989044 -5.38064e-05 -5.16396e-05)
341           (0.989044 -5.38064e-05 -5.16396e-05)
342           (0.989044 -5.38064e-05 -5.16396e-05)
343           (0.989044 -5.38064e-05 -5.16396e-05)
344           (0.989044 -5.38064e-05 -5.16396e-05)
345           (0.989044 -5.38064e-05 -5.16396e-05)
346           (0.989044 -5.38064e-05 -5.16396e-05)
347           (0.989044 -5.38064e-05 -5.16396e-05)
348           (0.989044 -5.38064e-05 -5.16395e-05)
349           (0.989044 -5.38064e-05 -5.16395e-05)
350           (0.989044 -5.38064e-05 -5.16395e-05)
351           (0.989044 -5.38064e-05 -5.16395e-05)
352           (0.989044 -5.38064e-05 -5.16394e-05)
353           (0.989044 -5.38064e-05 -5.16394e-05)
354           (0.989044 -5.38064e-05 -5.16394e-05)
355           (0.989044 -5.38065e-05 -5.16394e-05)
356           (0.989044 -5.38065e-05 -5.16394e-05)
357           (0.989044 -5.38065e-05 -5.16394e-05)
358           (0.989044 -5.38065e-05 -5.16394e-05)
359           (0.989044 -5.38065e-05 -5.16394e-05)
360           (0.989044 -5.38065e-05 -5.16393e-05)
361           (0.989044 -5.38065e-05 -5.16393e-05)
362           (0.989044 -5.38065e-05 -5.16393e-05)
363           (0.989044 -5.38065e-05 -5.16393e-05)
364           (0.989044 -5.38065e-05 -5.16393e-05)
365           (0.989044 -5.38065e-05 -5.16393e-05)
366           (0.989044 -5.38065e-05 -5.16393e-05)
367           (0.989044 -5.38065e-05 -5.16393e-05)
368           (0.989044 -5.38065e-05 -5.16393e-05)
369           (0.989044 -5.38065e-05 -5.16393e-05)
370           (0.989044 -5.38065e-05 -5.16393e-05)
371           (0.989044 -5.38065e-05 -5.16393e-05)
372           (0.989044 -5.38065e-05 -5.16393e-05)
373           (0.989044 -5.38065e-05 -5.16393e-05)
374           (0.989044 -5.38065e-05 -5.16393e-05)
375           (0.989044 -5.38065e-05 -5.16393e-05)
376           (0.989044 -5.38065e-05 -5.16392e-05)
377           (0.989044 -5.38065e-05 -5.16392e-05)
378           (0.989044 -5.38065e-05 -5.16392e-05)
379           (0.989044 -5.38065e-05 -5.16392e-05)
380           (0.989044 -5.38065e-05 -5.16392e-05)
381           (0.989044 -5.38065e-05 -5.16392e-05)
382           (0.989044 -5.38065e-05 -5.16392e-05)
383           (0.989044 -5.38065e-05 -5.16392e-05)
384           (0.989044 -5.38065e-05 -5.16392e-05)
385           (0.989044 -5.38065e-05 -5.16392e-05)
386           (0.989044 -5.38065e-05 -5.16392e-05)
387           (0.989044 -5.38065e-05 -5.16392e-05)
388           (0.989044 -5.38066e-05 -5.16392e-05)
389           (0.989044 -5.38066e-05 -5.16392e-05)
390           (0.989044 -5.38066e-05 -5.16392e-05)
391           (0.989044 -5.38066e-05 -5.16392e-05)
392           (0.989044 -5.38066e-05 -5.16392e-05)
393           (0.989044 -5.38066e-05 -5.16392e-05)
